LAMMPS data file via write_data, version Version LIGGGHTS-PUBLIC 3.3.1, compiled 2016-02-23-10:40:46 by guesnete, git commit 99507f5217ad4fd4be5107d6262bd7274c9a5c03 based on LAMMPS 23 Nov 2013, timestep = 600001

448 atoms
1 atom types

-4.3035398821252895e-02 4.3035398821252895e-02 xlo xhi
-4.3035398821252895e-02 4.3035398821252895e-02 ylo yhi
-4.3035398821252895e-02 4.3035398821252895e-02 zlo zhi

Atoms

224 1 1.2000000000000000e-02 1.0000000000000000e+12 -1.1931521799139853e-06 -3.8274878409173825e-02 -4.0817282258550920e-02 0 0 0
435 1 1.0000000000000000e-02 1.0000000000000002e+12 3.8905858448654143e-02 -4.1531073270685892e-02 -4.0168468794210550e-02 0 0 0
225 1 1.2000000000000000e-02 1.0000000000000000e+12 -2.1285059174096774e-02 -3.5929506587567175e-02 -4.1859012554175290e-02 0 0 0
270 1 1.2000000000000000e-02 1.0000000000000000e+12 -9.6310193933334103e-03 -3.1636343126754993e-02 -3.7829028833531037e-02 0 0 0
127 1 1.2000000000000000e-02 1.0000000000000000e+12 1.5165762463329910e-02 -3.1341689908714228e-02 -3.7331297130012916e-02 0 0 0
98 1 1.2000000000000000e-02 1.0000000000000000e+12 3.2099950059188594e-02 -3.2902706966959759e-02 -3.8954264322846342e-02 0 0 0
396 1 1.0000000000000000e-02 1.0000000000000002e+12 2.3281478457531524e-02 -2.3810187184288130e-02 -3.7014564659417284e-02 0 0 0
329 1 1.0000000000000000e-02 1.0000000000000002e+12 4.2709795531578644e-02 -2.6253641408289782e-02 -3.6773023849312740e-02 0 0 0
166 1 1.2000000000000000e-02 1.0000000000000000e+12 -3.4729179597477781e-02 -1.7918715326530200e-02 -3.9646456538742512e-02 0 0 0
8 1 1.2000000000000000e-02 1.0000000000000000e+12 -9.6487901469073326e-03 -1.8311242343701219e-02 -3.8063721555524684e-02 0 0 0
203 1 1.2000000000000000e-02 1.0000000000000000e+12 -2.2979693570574933e-02 -1.5774407306651583e-02 -4.1951066427975810e-02 0 0 0
402 1 1.0000000000000000e-02 1.0000000000000002e+12 1.2307075944753672e-02 -1.2249395861218594e-02 -4.2000613544308986e-02 0 0 0
191 1 1.2000000000000000e-02 1.0000000000000000e+12 2.8058213994911440e-02 -1.0612851778611380e-02 -3.7817847417162979e-02 0 0 0
105 1 1.2000000000000000e-02 1.0000000000000000e+12 -2.6643239081336350e-02 -3.6719509418679597e-03 -4.1055885786181925e-02 0 0 1
230 1 1.2000000000000000e-02 1.0000000000000000e+12 3.9382307916570818e-02 -6.6810019511717687e-03 -3.8540390181351837e-02 0 0 0
172 1 1.2000000000000000e-02 1.0000000000000000e+12 3.0587371871621402e-02 6.1929720540281465e-04 -4.2739524362866668e-02 0 0 1
377 1 1.0000000000000000e-02 1.0000000000000002e+12 -3.5705040903266698e-02 5.4241353270716051e-03 -4.1705713048261497e-02 0 0 1
282 1 1.2000000000000000e-02 1.0000000000000000e+12 1.8715620345562288e-03 9.4195740086273332e-03 -3.8633837053635496e-02 0 0 0
342 1 1.0000000000000000e-02 1.0000000000000002e+12 1.5146975684105144e-02 7.5559727281942386e-03 -3.7454602603937730e-02 0 0 0
361 1 1.0000000000000000e-02 1.0000000000000002e+12 1.7031452627632261e-02 1.6128378902136552e-02 -4.2523514787024465e-02 0 0 0
421 1 1.0000000000000000e-02 1.0000000000000002e+12 4.3663039168797694e-03 2.0377513128205991e-02 -3.6666136792547210e-02 0 0 0
345 1 1.0000000000000000e-02 1.0000000000000002e+12 2.6229836610948905e-02 1.8942042480385519e-02 -3.9787046355450731e-02 0 0 0
407 1 1.0000000000000000e-02 1.0000000000000002e+12 3.6066773731093765e-02 1.9430004923232450e-02 -4.1808472430984886e-02 0 0 0
183 1 1.2000000000000000e-02 1.0000000000000000e+12 -4.1045768102151138e-02 2.4364923132566906e-02 -3.7745578639923658e-02 0 0 0
158 1 1.2000000000000000e-02 1.0000000000000000e+12 -2.6008775637974935e-02 2.3174479569103529e-02 -3.9949319569830014e-02 0 0 0
363 1 1.0000000000000000e-02 1.0000000000000002e+12 -1.6235767668435062e-02 2.9102560067717994e-02 -3.8500357120251273e-02 0 0 0
43 1 1.2000000000000000e-02 1.0000000000000000e+12 -5.4113584825336699e-03 2.8771517496320700e-02 -3.6561270822457123e-02 0 0 0
95 1 1.2000000000000000e-02 1.0000000000000000e+12 1.2813972681803169e-02 2.7267959004805272e-02 -4.0111120783056370e-02 0 0 0
302 1 1.2000000000000000e-02 1.0000000000000000e+12 -4.0213903388969019e-02 3.6020455708344515e-02 -4.0492758900236098e-02 0 0 0
231 1 1.2000000000000000e-02 1.0000000000000000e+12 2.4579845594504306e-02 2.9810559241875371e-02 -4.0192276653193464e-02 0 0 0
381 1 1.0000000000000000e-02 1.0000000000000002e+12 3.5355395173504466e-02 3.1244763845972832e-02 -4.1874808780965937e-02 0 0 0
267 1 1.2000000000000000e-02 1.0000000000000000e+12 -9.6705120156083107e-03 4.0346955332057823e-02 -3.7534860898561166e-02 0 0 0
252 1 1.2000000000000000e-02 1.0000000000000000e+12 4.6293392645955630e-03 3.6626485608144188e-02 -4.0344729091858315e-02 0 0 0
370 1 1.0000000000000000e-02 1.0000000000000002e+12 1.5344465589883519e-02 3.7523398713719847e-02 -3.7024527144383687e-02 0 0 0
344 1 1.0000000000000000e-02 1.0000000000000002e+12 2.9957011952765289e-02 4.0209927533857957e-02 -3.8856252489592492e-02 0 0 0
66 1 1.2000000000000000e-02 1.0000000000000000e+12 -3.8538926731151474e-02 -4.2988806765995084e-02 -3.0374098152400206e-02 0 0 0
59 1 1.2000000000000000e-02 1.0000000000000000e+12 -2.4910520335279868e-02 -3.9681979765498990e-02 -3.0790168228014642e-02 0 0 0
373 1 1.0000000000000000e-02 1.0000000000000002e+12 8.9447504245010623e-03 -4.0875134980422279e-02 -3.4964536278479806e-02 0 0 0
218 1 1.2000000000000000e-02 1.0000000000000000e+12 2.1443718000709003e-02 -4.0455532499534055e-02 -3.2687345800943630e-02 0 0 0
411 1 1.0000000000000000e-02 1.0000000000000002e+12 3.7466403363045228e-02 -3.8565940197925939e-02 -3.0727284695140369e-02 0 0 0
348 1 1.0000000000000000e-02 1.0000000000000002e+12 -3.3348866065568174e-02 -3.2625461250992763e-02 -3.1833229534559970e-02 0 0 0
389 1 1.0000000000000000e-02 1.0000000000000002e+12 4.2585819705793886e-03 -3.2371432049108681e-02 -3.2570974419975314e-02 0 0 0
160 1 1.2000000000000000e-02 1.0000000000000000e+12 -1.9832611399215359e-02 -2.5627319858561981e-02 -3.5866704529018814e-02 0 0 0
167 1 1.2000000000000000e-02 1.0000000000000000e+12 -3.0468951963138900e-03 -2.4502154177273045e-02 -3.0182624430039648e-02 0 0 0
365 1 1.0000000000000000e-02 1.0000000000000002e+12 -2.7816639945246878e-02 -1.9648623270330279e-02 -3.1222894182256763e-02 0 0 0
138 1 1.2000000000000000e-02 1.0000000000000000e+12 7.2841571057739333e-03 -2.2384090589561211e-02 -3.6049695526562169e-02 0 0 0
311 1 1.0000000000000000e-02 1.0000000000000002e+12 3.6620799489278183e-02 -1.6898079981336838e-02 -3.4841514208410175e-02 0 0 0
69 1 1.2000000000000000e-02 1.0000000000000000e+12 -1.7833246901518579e-02 -1.5225415199949308e-02 -2.9846229572342061e-02 0 0 0
38 1 1.2000000000000000e-02 1.0000000000000000e+12 4.6889687002514479e-05 -1.3279514991414675e-02 -3.3095119054023972e-02 0 0 0
290 1 1.2000000000000000e-02 1.0000000000000000e+12 1.5867607598317950e-02 -1.5053992288110664e-02 -3.1975877012929324e-02 0 0 0
132 1 1.2000000000000000e-02 1.0000000000000000e+12 -2.7967416029074973e-02 -8.6602793592693763e-03 -3.0028806887278880e-02 0 0 0
249 1 1.2000000000000000e-02 1.0000000000000000e+12 -1.5402838707690427e-02 -5.1513621473155248e-03 -3.5941236425308325e-02 0 0 0
222 1 1.2000000000000000e-02 1.0000000000000000e+12 1.8222878393002306e-02 -3.7545354859328025e-03 -3.5651003982873179e-02 0 0 0
313 1 1.0000000000000000e-02 1.0000000000000002e+12 -3.6483716947538568e-02 2.7895390398263433e-03 -3.1968050541584955e-02 0 0 0
87 1 1.2000000000000000e-02 1.0000000000000000e+12 -2.5670160334893880e-03 -1.7072757146040678e-03 -3.4898275689356162e-02 0 0 0
415 1 1.0000000000000000e-02 1.0000000000000002e+12 8.1547058878957308e-03 6.7492368910307117e-04 -3.5514177367217438e-02 0 0 0
358 1 1.0000000000000000e-02 1.0000000000000002e+12 -2.7342089314248207e-02 5.4859009623856566e-03 -3.4998288619814077e-02 0 0 0
186 1 1.2000000000000000e-02 1.0000000000000000e+12 -1.1475575599127331e-02 6.3301288715629450e-03 -3.4693257791974567e-02 0 0 0
131 1 1.2000000000000000e-02 1.0000000000000000e+12 2.4137921392683965e-02 5.7066316476143270e-03 -3.1208792836196965e-02 0 0 0
237 1 1.2000000000000000e-02 1.0000000000000000e+12 3.9018151334175077e-02 4.5897900319143963e-03 -3.4437035845360432e-02 0 0 0
239 1 1.2000000000000000e-02 1.0000000000000000e+12 -3.4822516325016969e-02 1.4372630547466805e-02 -3.5364627332755486e-02 0 0 0
11 1 1.2000000000000000e-02 1.0000000000000000e+12 -2.3225921318206787e-02 1.5082210441638108e-02 -3.1535357772609310e-02 0 0 0
382 1 1.0000000000000000e-02 1.0000000000000002e+12 3.1910099351811258e-02 1.2978693378914200e-02 -3.4114276739481163e-02 0 0 0
305 1 1.2000000000000000e-02 1.0000000000000000e+12 -1.2482608365779246e-02 1.8892189261604669e-02 -3.5285768917689232e-02 0 0 0
128 1 1.2000000000000000e-02 1.0000000000000000e+12 2.0369003315100730e-02 1.7081882846741399e-02 -3.0545225335920564e-02 0 0 0
55 1 1.2000000000000000e-02 1.0000000000000000e+12 3.1200194242875724e-02 2.5318689167739702e-02 -3.1210423682767174e-02 0 0 0
259 1 1.2000000000000000e-02 1.0000000000000000e+12 -3.0384118958086580e-02 3.2591948116123044e-02 -3.3935004744094589e-02 0 0 0
217 1 1.2000000000000000e-02 1.0000000000000000e+12 3.7320987951049225e-02 3.5654446451191632e-02 -3.1973790003404598e-02 0 0 0
408 1 1.0000000000000000e-02 1.0000000000000002e+12 -2.0842352787706457e-02 3.7656795486859747e-02 -3.6115826119197059e-02 0 0 0
57 1 1.2000000000000000e-02 1.0000000000000000e+12 -7.2351845705516020e-03 -3.8439672890321283e-02 -2.8238603494626324e-02 0 0 0
130 1 1.2000000000000000e-02 1.0000000000000000e+12 4.0305056058595927e-03 -3.9370678467026049e-02 -2.4088143887371190e-02 0 0 0
182 1 1.2000000000000000e-02 1.0000000000000000e+12 -4.1497034177799499e-02 -3.2934508335929515e-02 -2.4449969951419435e-02 0 0 0
401 1 1.0000000000000000e-02 1.0000000000000002e+12 -1.6525803703046196e-02 -3.2247816320696225e-02 -2.7251026819521521e-02 0 0 0
419 1 1.0000000000000000e-02 1.0000000000000002e+12 1.4338098302060783e-02 -3.5257725100630272e-02 -2.5528225140872593e-02 0 0 0
283 1 1.2000000000000000e-02 1.0000000000000000e+12 2.9058468875846899e-02 -3.6040249595886482e-02 -2.4099490856069335e-02 0 0 0
47 1 1.2000000000000000e-02 1.0000000000000000e+12 1.2223004693396478e-02 -2.4378133272905250e-02 -2.5287991763040113e-02 0 0 0
150 1 1.2000000000000000e-02 1.0000000000000000e+12 3.5073847168788551e-02 -2.6819030148046027e-02 -2.8875380522033672e-02 0 0 0
248 1 1.2000000000000000e-02 1.0000000000000000e+12 -3.8318373781121656e-02 -2.1252567405878890e-02 -2.8369644506599425e-02 0 0 0
45 1 1.2000000000000000e-02 1.0000000000000000e+12 2.6769620862201558e-02 -1.8194308784878186e-02 -2.8066265676025517e-02 0 0 0
201 1 1.2000000000000000e-02 1.0000000000000000e+12 3.7846271086645969e-02 -1.6132594806445359e-02 -2.3936233625345874e-02 0 0 0
2 1 1.2000000000000000e-02 1.0000000000000000e+12 -3.9963436236929752e-02 -8.9584947273924995e-03 -2.8864386696771143e-02 0 0 0
325 1 1.0000000000000000e-02 1.0000000000000002e+12 -8.8828314730825322e-03 -8.9158911026359661e-03 -2.7714931383835760e-02 0 0 0
258 1 1.2000000000000000e-02 1.0000000000000000e+12 8.4289521452562358e-03 -6.8074122682602748e-03 -2.7430444685082531e-02 0 0 0
37 1 1.2000000000000000e-02 1.0000000000000000e+12 2.1409139157247230e-02 -7.0742957622390631e-03 -2.4343776235218047e-02 0 0 0
89 1 1.2000000000000000e-02 1.0000000000000000e+12 3.2235367745303375e-02 -3.9235191507456125e-03 -2.8492192633416596e-02 0 0 0
362 1 1.0000000000000000e-02 1.0000000000000002e+12 -1.8798221240369378e-02 -3.0799151505104508e-04 -2.6441969524321780e-02 0 0 0
367 1 1.0000000000000000e-02 1.0000000000000002e+12 -7.4600565421193083e-03 1.8713171512283926e-03 -2.4556987624130919e-02 0 0 0
21 1 1.2000000000000000e-02 1.0000000000000000e+12 -2.7162060996766359e-02 6.4872228858006246e-03 -2.3948146336589878e-02 0 0 0
393 1 1.0000000000000000e-02 1.0000000000000002e+12 -1.5291170978388682e-02 9.2644796280088385e-03 -2.4802041794273935e-02 0 0 0
143 1 1.2000000000000000e-02 1.0000000000000000e+12 3.3201756697353222e-03 3.8737536158785844e-03 -2.5469054850107163e-02 0 0 0
400 1 1.0000000000000000e-02 1.0000000000000002e+12 3.8273595085198751e-02 7.1506713978090027e-03 -2.3680799248555182e-02 0 0 0
78 1 1.2000000000000000e-02 1.0000000000000000e+12 -3.8178685405010964e-03 1.3567396334071370e-02 -2.8916302472583907e-02 0 0 0
44 1 1.2000000000000000e-02 1.0000000000000000e+12 1.3621016613039232e-02 1.0311296864608823e-02 -2.3219750423458058e-02 0 0 0
10 1 1.2000000000000000e-02 1.0000000000000000e+12 2.9165075837595467e-02 1.3319078741484185e-02 -2.3240320484648490e-02 0 0 0
438 1 1.0000000000000000e-02 1.0000000000000002e+12 -3.3792763255027350e-02 1.8674566973331627e-02 -2.5293109926011626e-02 0 0 0
228 1 1.2000000000000000e-02 1.0000000000000000e+12 4.1013138994914378e-02 1.7338364147182751e-02 -2.8826762324563552e-02 0 0 0
100 1 1.2000000000000000e-02 1.0000000000000000e+12 -3.9677548704802730e-02 2.9004458378411577e-02 -2.6760984186620360e-02 0 0 0
83 1 1.2000000000000000e-02 1.0000000000000000e+12 -2.7260939184568202e-02 2.7359492972479128e-02 -2.3582979942372136e-02 0 0 0
13 1 1.2000000000000000e-02 1.0000000000000000e+12 -1.5107283797753819e-02 2.6348438831702854e-02 -2.6257178611673357e-02 0 0 0
31 1 1.2000000000000000e-02 1.0000000000000000e+12 -2.4876304872032840e-03 2.5124044968676592e-02 -2.5508873930145150e-02 0 0 0
272 1 1.2000000000000000e-02 1.0000000000000000e+12 1.7670224202936888e-02 2.8703098156857024e-02 -2.9231792713180875e-02 0 0 0
398 1 1.0000000000000000e-02 1.0000000000000002e+12 -1.2588338954500389e-02 3.6989116877755884e-02 -2.7453857329974945e-02 0 0 0
173 1 1.2000000000000000e-02 1.0000000000000000e+12 -1.3893292603704738e-03 3.7167055361100640e-02 -2.8961732282744651e-02 0 0 0
92 1 1.2000000000000000e-02 1.0000000000000000e+12 1.3396204972614184e-02 3.9503661429612105e-02 -2.6215736785465921e-02 0 0 0
188 1 1.2000000000000000e-02 1.0000000000000000e+12 2.7333133771666820e-02 3.7844725052003571e-02 -2.5692302879855456e-02 0 0 0
264 1 1.2000000000000000e-02 1.0000000000000000e+12 -3.3046943781456783e-02 -3.9227778915975682e-02 -1.8364075798568674e-02 0 0 0
306 1 1.2000000000000000e-02 1.0000000000000000e+12 -2.2713789045636281e-03 -3.0177361296677408e-02 -1.9637783316892126e-02 0 0 0
52 1 1.2000000000000000e-02 1.0000000000000000e+12 -3.0926986085574981e-02 -2.7859174594416943e-02 -2.1568824526459723e-02 0 0 0
333 1 1.0000000000000000e-02 1.0000000000000002e+12 2.7386577333234047e-02 -2.5859085436406505e-02 -2.0179789244582826e-02 0 0 0
219 1 1.2000000000000000e-02 1.0000000000000000e+12 3.7964992953148743e-02 -2.6055083501369869e-02 -1.7170020735325104e-02 0 0 0
412 1 1.0000000000000000e-02 1.0000000000000002e+12 -3.8371791695694005e-02 -2.0933438309245184e-02 -1.7370650926152795e-02 0 0 0
414 1 1.0000000000000000e-02 1.0000000000000002e+12 -2.3997558248202894e-02 -1.9315471440352436e-02 -2.1693705860856231e-02 0 0 0
204 1 1.2000000000000000e-02 1.0000000000000000e+12 -1.2816400184165817e-02 -2.3050851567930797e-02 -2.2158423632371676e-02 0 0 0
312 1 1.0000000000000000e-02 1.0000000000000002e+12 2.0334450737290632e-02 -1.8250582198916249e-02 -1.8261106087174035e-02 0 0 0
142 1 1.2000000000000000e-02 1.0000000000000000e+12 -3.6680783747918187e-02 -1.0067214866140954e-02 -1.6955613915662374e-02 0 0 0
16 1 1.2000000000000000e-02 1.0000000000000000e+12 -2.0947356448084427e-03 -1.5729499545279621e-02 -2.1544674974001719e-02 0 0 0
371 1 1.0000000000000000e-02 1.0000000000000002e+12 1.1282844741717972e-02 -1.2869317759498027e-02 -1.8586403290135119e-02 0 0 0
1 1 1.2000000000000000e-02 1.0000000000000000e+12 -1.6325728874310771e-02 -9.1452693564054739e-03 -1.9609817882278568e-02 0 0 0
147 1 1.2000000000000000e-02 1.0000000000000000e+12 2.5299173013447339e-03 -4.9530425841611573e-03 -1.7145212359798549e-02 0 0 0
208 1 1.2000000000000000e-02 1.0000000000000000e+12 3.9472147676040681e-02 -3.3833202956374945e-03 -1.8899338867771988e-02 0 0 0
386 1 1.0000000000000000e-02 1.0000000000000002e+12 -3.6267384849765064e-02 -5.8614153488047052e-04 -2.2518923270641835e-02 0 0 0
189 1 1.2000000000000000e-02 1.0000000000000000e+12 -2.6780461467691058e-02 -3.0715404431244046e-03 -1.6663422938102364e-02 0 0 0
268 1 1.2000000000000000e-02 1.0000000000000000e+12 1.3714096789671748e-02 -4.9881269386030413e-04 -1.7877935727833572e-02 0 0 0
4 1 1.2000000000000000e-02 1.0000000000000000e+12 -3.7903452820954711e-02 1.0056124239003383e-02 -1.9818085969839770e-02 0 0 0
271 1 1.2000000000000000e-02 1.0000000000000000e+12 2.0243654173235318e-03 1.3683901506125291e-02 -1.8435007258093921e-02 0 0 0
433 1 1.0000000000000000e-02 1.0000000000000002e+12 3.8435549759233661e-02 1.6075603516541175e-02 -1.7564358979050284e-02 0 0 0
180 1 1.2000000000000000e-02 1.0000000000000000e+12 -2.1338945060901449e-02 1.7288248558253498e-02 -1.9891124781757488e-02 0 0 0
27 1 1.2000000000000000e-02 1.0000000000000000e+12 9.8610413572338945e-03 2.2398458275216093e-02 -2.1037243581809553e-02 0 0 0
426 1 1.0000000000000000e-02 1.0000000000000002e+12 1.9877505236647289e-02 2.0290003371438277e-02 -1.7008667065503087e-02 0 0 0
327 1 1.0000000000000000e-02 1.0000000000000002e+12 2.5560975782358563e-02 2.7768998955936409e-02 -2.1624753016196645e-02 0 0 0
209 1 1.2000000000000000e-02 1.0000000000000000e+12 3.6799930464215272e-02 2.6694171471298725e-02 -1.9931919627816160e-02 0 0 0
418 1 1.0000000000000000e-02 1.0000000000000002e+12 -3.3348886346222496e-02 3.6301271431124729e-02 -2.1494820017907704e-02 0 0 0
140 1 1.2000000000000000e-02 1.0000000000000000e+12 -6.6530582970766418e-03 3.4170759316723177e-02 -1.8599519935793181e-02 0 0 0
254 1 1.2000000000000000e-02 1.0000000000000000e+12 5.2844298095281730e-03 3.3397400138995767e-02 -1.9562844479941003e-02 0 0 0
81 1 1.2000000000000000e-02 1.0000000000000000e+12 -1.9867033227895400e-02 4.0630740041081685e-02 -2.0026682925620317e-02 0 0 0
275 1 1.2000000000000000e-02 1.0000000000000000e+12 3.8283560408999807e-02 3.8599026465986466e-02 -2.0351173010253042e-02 0 0 0
73 1 1.2000000000000000e-02 1.0000000000000000e+12 -8.0438439902226801e-03 -4.0186715334093313e-02 -1.6393873242575331e-02 0 0 0
102 1 1.2000000000000000e-02 1.0000000000000000e+12 1.2739891047503837e-02 -4.0310186397520278e-02 -1.5885109161471671e-02 0 0 0
385 1 1.0000000000000000e-02 1.0000000000000002e+12 3.8166732470718355e-02 -3.7219460903171755e-02 -1.6362727012450791e-02 0 0 0
24 1 1.2000000000000000e-02 1.0000000000000000e+12 -3.8080268919116748e-02 -3.0473197190186433e-02 -1.1855018108042953e-02 0 0 0
177 1 1.2000000000000000e-02 1.0000000000000000e+12 -2.0487425531447473e-02 -3.1114608889025709e-02 -1.6587834973251770e-02 0 0 0
245 1 1.2000000000000000e-02 1.0000000000000000e+12 2.9915218799392916e-03 -3.6175373061532318e-02 -1.0238913950431269e-02 0 0 0
351 1 1.0000000000000000e-02 1.0000000000000002e+12 2.7895405802855926e-02 -3.6343145992433872e-02 -1.3164417410686774e-02 0 0 0
133 1 1.2000000000000000e-02 1.0000000000000000e+12 1.7860545018576798e-02 -2.9440927339726041e-02 -1.5975016054367717e-02 0 0 0
405 1 1.0000000000000000e-02 1.0000000000000002e+12 -1.5779657645605741e-02 -1.7218953380435231e-02 -1.2158790045169895e-02 0 0 0
279 1 1.2000000000000000e-02 1.0000000000000000e+12 -5.7643119622418455e-03 -2.1756299692320503e-02 -1.1833218469535410e-02 0 0 0
104 1 1.2000000000000000e-02 1.0000000000000000e+12 6.0533001233743569e-03 -2.2808409958960021e-02 -1.5115810690660638e-02 0 0 0
261 1 1.2000000000000000e-02 1.0000000000000000e+12 2.8235340145913543e-02 -2.0868949655913929e-02 -1.0337095029520561e-02 0 0 0
198 1 1.2000000000000000e-02 1.0000000000000000e+12 -2.6304764935798863e-02 -1.3962339625263788e-02 -1.1538602600293891e-02 0 0 0
320 1 1.0000000000000000e-02 1.0000000000000002e+12 5.6011757934950560e-03 -1.2953496359832468e-02 -1.0248804848903684e-02 0 0 0
195 1 1.2000000000000000e-02 1.0000000000000000e+12 3.0217968474967161e-02 -1.0680898469904297e-02 -1.6445648408219580e-02 0 0 0
416 1 1.0000000000000000e-02 1.0000000000000002e+12 4.0027702994467534e-02 -1.4512943309627041e-02 -1.3268936267196912e-02 0 0 0
265 1 1.2000000000000000e-02 1.0000000000000000e+12 -7.2545341957220141e-03 -9.3045619906922429e-03 -1.1616341598166206e-02 0 0 0
90 1 1.2000000000000000e-02 1.0000000000000000e+12 1.9221814292123350e-02 -9.2902219336240925e-03 -1.1846666341299590e-02 0 0 0
154 1 1.2000000000000000e-02 1.0000000000000000e+12 -3.7224996418632257e-02 9.7003211923843912e-04 -1.1668351447183450e-02 0 0 0
298 1 1.2000000000000000e-02 1.0000000000000000e+12 -1.5943596705592783e-02 2.3517455275272000e-03 -1.6157176360738310e-02 0 0 0
110 1 1.2000000000000000e-02 1.0000000000000000e+12 2.8168902532076441e-02 1.1226532501563992e-03 -1.5751992796106177e-02 0 0 0
91 1 1.2000000000000000e-02 1.0000000000000000e+12 -2.7269725528784969e-02 7.6740426352101369e-03 -1.1244231772747800e-02 0 0 0
93 1 1.2000000000000000e-02 1.0000000000000000e+12 -4.3019040281684446e-03 4.4402354724684175e-03 -1.4129880260192591e-02 0 0 0
151 1 1.2000000000000000e-02 1.0000000000000000e+12 3.8225852853071028e-02 6.5421686315086805e-03 -1.2079499256547839e-02 0 0 0
58 1 1.2000000000000000e-02 1.0000000000000000e+12 1.1648550912250599e-02 1.1910667089941847e-02 -1.1490122474070816e-02 0 0 0
357 1 1.0000000000000000e-02 1.0000000000000002e+12 2.1811542227931011e-02 1.0099071345644809e-02 -1.5656703999053143e-02 0 0 0
211 1 1.2000000000000000e-02 1.0000000000000000e+12 -3.8523791542727670e-02 2.2025407370973776e-02 -1.5944729323143867e-02 0 0 0
422 1 1.0000000000000000e-02 1.0000000000000002e+12 -2.8144737298111542e-02 2.1489772566909635e-02 -1.2339202850572757e-02 0 0 0
387 1 1.0000000000000000e-02 1.0000000000000002e+12 -8.9237197521059124e-03 1.7114942569937733e-02 -1.5221560355638489e-02 0 0 0
75 1 1.2000000000000000e-02 1.0000000000000000e+12 2.9614613856241138e-02 1.9509075389988480e-02 -1.1924965259319116e-02 0 0 0
48 1 1.2000000000000000e-02 1.0000000000000000e+12 -1.8221563029585188e-02 2.7677166432471447e-02 -1.4737963175972606e-02 0 0 0
294 1 1.2000000000000000e-02 1.0000000000000000e+12 -3.7731404381789822e-04 2.4461002692212058e-02 -1.3714446763670356e-02 0 0 0
251 1 1.2000000000000000e-02 1.0000000000000000e+12 -3.9656681412168729e-02 3.3571699859399819e-02 -1.2878704222837201e-02 0 0 0
293 1 1.2000000000000000e-02 1.0000000000000000e+12 -2.6267767403663086e-02 3.5952345157956242e-02 -1.1015428054144322e-02 0 0 0
116 1 1.2000000000000000e-02 1.0000000000000000e+12 1.6951153642930546e-02 3.1866701066440184e-02 -1.5304015019586718e-02 0 0 0
101 1 1.2000000000000000e-02 1.0000000000000000e+12 3.0090045995006341e-02 3.3712958373514658e-02 -1.2801674877764317e-02 0 0 0
413 1 1.0000000000000000e-02 1.0000000000000002e+12 2.2764433993479924e-02 4.1248652929067535e-02 -1.6282715522668450e-02 0 0 0
314 1 1.0000000000000000e-02 1.0000000000000002e+12 -1.5812571258193669e-02 -3.7615504405358977e-02 -9.0427906876229917e-03 0 0 0
287 1 1.2000000000000000e-02 1.0000000000000000e+12 -5.9335870699280336e-03 -4.1321436672881642e-02 -4.0840241927097001e-03 0 0 0
444 1 1.0000000000000000e-02 1.0000000000000002e+12 2.9620247166610009e-02 -4.2612281123881504e-02 -4.6306040232388275e-03 0 1 0
139 1 1.2000000000000000e-02 1.0000000000000000e+12 -2.8989012500652299e-02 -3.5772417367323776e-02 -6.0871550170756286e-03 0 0 0
115 1 1.2000000000000000e-02 1.0000000000000000e+12 1.3885044677358674e-02 -3.3838418088611731e-02 -5.5267352368680890e-03 0 0 0
113 1 1.2000000000000000e-02 1.0000000000000000e+12 3.5978817553433073e-02 -3.1948611405284773e-02 -6.9073891994320975e-03 0 0 0
326 1 1.0000000000000000e-02 1.0000000000000002e+12 -2.6737654725518700e-02 -2.4862536874911377e-02 -9.7896526708759861e-03 0 0 0
123 1 1.2000000000000000e-02 1.0000000000000000e+12 4.3930492394725308e-03 -2.5614818497718739e-02 -3.5670390254043845e-03 0 0 0
247 1 1.2000000000000000e-02 1.0000000000000000e+12 -3.5989510179710776e-02 -1.9657645191664259e-02 -6.7073562461971523e-03 0 0 0
181 1 1.2000000000000000e-02 1.0000000000000000e+12 1.3961893884240397e-02 -1.7087429127189278e-02 -4.3943634555151509e-03 0 0 0
227 1 1.2000000000000000e-02 1.0000000000000000e+12 -4.0507288614170398e-02 -8.6267939202571298e-03 -5.2257442487764613e-03 0 0 0
96 1 1.2000000000000000e-02 1.0000000000000000e+12 -2.9225937006461648e-02 -4.5460971565376941e-03 -4.6262981774031608e-03 0 0 0
121 1 1.2000000000000000e-02 1.0000000000000000e+12 -1.7595634089821677e-02 -7.2146989284898764e-03 -5.8981616730835480e-03 0 0 0
273 1 1.2000000000000000e-02 1.0000000000000000e+12 3.4001473223792843e-02 -5.4894326828421524e-03 -5.9653946141355677e-03 0 0 0
226 1 1.2000000000000000e-02 1.0000000000000000e+12 7.1328443697902958e-04 -1.3585966422988848e-03 -4.8740735059024966e-03 0 0 0
212 1 1.2000000000000000e-02 1.0000000000000000e+12 1.2577030134770718e-02 1.4554744819298699e-03 -5.6311396929934546e-03 0 0 0
394 1 1.0000000000000000e-02 1.0000000000000002e+12 3.0099690850080751e-02 4.7470111055960777e-03 -4.8367622016674194e-03 0 0 0
236 1 1.2000000000000000e-02 1.0000000000000000e+12 -3.8072468243348583e-02 1.2893471357989121e-02 -8.1458421237199999e-03 0 0 0
233 1 1.2000000000000000e-02 1.0000000000000000e+12 -1.7179871291176287e-02 1.3700255358481281e-02 -8.7849719559180365e-03 0 0 0
149 1 1.2000000000000000e-02 1.0000000000000000e+12 -1.3453579572988380e-03 1.3626390864638880e-02 -6.3758878614258649e-03 0 0 0
28 1 1.2000000000000000e-02 1.0000000000000000e+12 2.1594942234784895e-02 1.1723167479396685e-02 -4.7793775878041400e-03 0 0 0
372 1 1.0000000000000000e-02 1.0000000000000002e+12 3.5600810475603512e-02 1.4048765635605269e-02 -4.4602177361526673e-03 0 0 0
88 1 1.2000000000000000e-02 1.0000000000000000e+12 -1.0266168484585825e-02 2.2991932645942733e-02 -5.6304001995805429e-03 0 0 0
6 1 1.2000000000000000e-02 1.0000000000000000e+12 -3.3588997087999277e-02 2.7668873736462589e-02 -4.3524084893602653e-03 0 0 0
206 1 1.2000000000000000e-02 1.0000000000000000e+12 -2.2129978588500944e-02 2.4118996998205210e-02 -3.5114388086041727e-03 0 0 0
238 1 1.2000000000000000e-02 1.0000000000000000e+12 1.0089796900062753e-02 2.5397722805033010e-02 -6.9445198220319075e-03 0 0 0
322 1 1.0000000000000000e-02 1.0000000000000002e+12 3.9438516429758666e-02 2.3458935689476504e-02 -8.5366248410290065e-03 0 0 0
297 1 1.2000000000000000e-02 1.0000000000000000e+12 -2.5730823662698478e-03 3.3344296140227776e-02 -5.9511872066968004e-03 0 0 0
49 1 1.2000000000000000e-02 1.0000000000000000e+12 2.2111191976648067e-02 3.0127223353670060e-02 -4.5848150703301262e-03 0 0 0
352 1 1.0000000000000000e-02 1.0000000000000002e+12 -2.1540530305439235e-02 4.2463016012693380e-02 -3.4495449050350275e-03 0 0 0
242 1 1.2000000000000000e-02 1.0000000000000000e+12 -1.3834366018692089e-02 3.7608399079369206e-02 -9.6182102750037544e-03 0 0 0
136 1 1.2000000000000000e-02 1.0000000000000000e+12 8.4933212872342241e-03 3.7173373710517085e-02 -8.6282928413329175e-03 0 0 0
262 1 1.2000000000000000e-02 1.0000000000000000e+12 4.0206978835920559e-02 4.0495606274579064e-02 -5.2937486109522740e-03 0 0 0
33 1 1.2000000000000000e-02 1.0000000000000000e+12 6.7012340356848070e-03 -4.0716462373895923e-02 1.2162822347070678e-03 0 0 0
196 1 1.2000000000000000e-02 1.0000000000000000e+12 -4.0186374377809551e-02 -3.5764461093131507e-02 -1.2915462446702174e-03 0 0 0
292 1 1.2000000000000000e-02 1.0000000000000000e+12 -1.8511034764358749e-02 -3.3582610751732557e-02 2.1145319909044898e-03 0 0 0
341 1 1.0000000000000000e-02 1.0000000000000002e+12 -4.1619806548481117e-02 -2.4998188662823988e-02 1.1408790465107816e-03 1 0 0
26 1 1.2000000000000000e-02 1.0000000000000000e+12 -3.0659336682717909e-02 -2.6616569490237583e-02 1.4882341784058679e-03 0 0 0
97 1 1.2000000000000000e-02 1.0000000000000000e+12 -8.1987344602865199e-03 -2.9499695014423274e-02 -2.9427526567416791e-03 0 0 0
40 1 1.2000000000000000e-02 1.0000000000000000e+12 2.4886115989322499e-02 -2.9733897967078208e-02 -2.8897106652984511e-03 0 0 0
72 1 1.2000000000000000e-02 1.0000000000000000e+12 -1.8251704156406527e-02 -2.2696392115729769e-02 -2.9427628253570716e-03 0 0 0
84 1 1.2000000000000000e-02 1.0000000000000000e+12 3.7464839945793298e-02 -1.7592338008230419e-02 -3.0240921639598374e-03 0 0 0
354 1 1.0000000000000000e-02 1.0000000000000002e+12 -2.7185887378800278e-02 -1.6333937934172583e-02 -8.3146374843193563e-04 0 0 0
74 1 1.2000000000000000e-02 1.0000000000000000e+12 -1.9472914200954830e-03 -1.5166830142339289e-02 -2.5584052040308640e-03 0 0 0
330 1 1.0000000000000000e-02 1.0000000000000002e+12 2.7005147348176158e-02 -1.4756373385993109e-02 -1.1394123971039069e-03 0 0 0
441 1 1.0000000000000000e-02 1.0000000000000002e+12 -8.0765833783732963e-03 -6.4714150158517439e-03 1.9419525800998339e-03 0 0 0
202 1 1.2000000000000000e-02 1.0000000000000000e+12 8.3410444026318711e-03 -8.1971534437967931e-03 1.3822315277191690e-03 0 0 0
42 1 1.2000000000000000e-02 1.0000000000000000e+12 2.0345375551423212e-02 -6.0175038777838946e-03 -3.5629288149491246e-04 0 0 0
379 1 1.0000000000000000e-02 1.0000000000000002e+12 -3.3149969266500226e-02 5.9123564885644611e-03 -1.1347828611315688e-03 0 0 0
12 1 1.2000000000000000e-02 1.0000000000000000e+12 -2.1310665049540781e-02 3.9646973326995932e-03 -1.3380274209745346e-03 0 0 0
82 1 1.2000000000000000e-02 1.0000000000000000e+12 -9.4563695261537534e-03 4.9173387510199314e-03 -3.1786789736583843e-03 0 0 0
190 1 1.2000000000000000e-02 1.0000000000000000e+12 4.1960375045623999e-02 5.5799621835608019e-03 -2.4972818230286085e-04 0 0 0
355 1 1.0000000000000000e-02 1.0000000000000002e+12 -3.8039232619721322e-02 1.5242175857044425e-02 2.6018953080736832e-03 0 0 0
192 1 1.2000000000000000e-02 1.0000000000000000e+12 -2.6732955684781592e-02 1.4367236650129301e-02 1.7559735067601773e-03 0 0 0
193 1 1.2000000000000000e-02 1.0000000000000000e+12 6.8069995425518422e-03 1.5908484267014217e-02 2.1330495555770706e-03 0 0 0
376 1 1.0000000000000000e-02 1.0000000000000002e+12 1.7577956561324388e-02 1.8006120835337664e-02 3.3069639591732595e-03 0 0 0