Random compact.
400 atoms
1 atom types

-0.351430369907E-02 0.351430369907E-02 xlo xhi
-0.361430369907E-02 0.351430369907E-02 ylo yhi
-0.351430369907E-02 0.351430369907E-02 zlo zhi

Atoms #atom-ID	atom-type	diameter	density	x	y	z

1   1  1.00E-03 1.00E+4  -0.301619992893E-02  0.768006196192E-03 -0.292002241944E-02
2   1  1.00E-03 1.00E+4  -0.303824113403E-02  0.281224692383E-03 -0.205277849389E-02
3   1  1.00E-03 1.00E+4  -0.216616854959E-02  0.552966761181E-03 -0.244763768342E-02
4   1  1.00E-03 1.00E+4  -0.245673659159E-02 -0.756325006858E-04 -0.316314838096E-02
5   1  1.00E-03 1.00E+4   0.316145988193E-02  0.103523440683E-02 -0.336104036688E-02
6   1  1.00E-03 1.00E+4  -0.270432237457E-02  0.155111255607E-02 -0.238990907716E-02
7   1  1.00E-03 1.00E+4  -0.318539476634E-02  0.257689123539E-03  0.327271871503E-02
8   1  1.00E-03 1.00E+4  -0.205788924831E-02  0.131209324276E-02 -0.310726859223E-02
9   1  1.00E-03 1.00E+4  -0.753026136057E-03 -0.917925287596E-03 -0.372819263773E-03
10  1  1.00E-03 1.00E+4  -0.149836241509E-02 -0.172572400668E-02  0.223320301779E-03
11  1  1.00E-03 1.00E+4  -0.172360064759E-02 -0.715766131811E-03 -0.314864345039E-03
12  1  1.00E-03 1.00E+4  -0.133556575794E-02 -0.955794236758E-03 -0.120215808276E-02
13  1  1.00E-03 1.00E+4  -0.112231206990E-02 -0.188635125527E-02 -0.913498564909E-03
14  1  1.00E-03 1.00E+4  -0.562524348605E-03 -0.185431730923E-02 -0.894148808326E-04
15  1  1.00E-03 1.00E+4   0.200296090634E-02  0.289342109776E-03 -0.161267748512E-02
16  1  1.00E-03 1.00E+4   0.234984260395E-02 -0.597907675740E-03 -0.200673839804E-02
17  1  1.00E-03 1.00E+4   0.271908673845E-02  0.973263298982E-03 -0.152166213558E-02
18  1  1.00E-03 1.00E+4   0.228588321932E-02  0.738276734140E-03 -0.245548683135E-02
19  1  1.00E-03 1.00E+4   0.208272863606E-02 -0.422672166661E-03 -0.294357518419E-02
20  1  1.00E-03 1.00E+4   0.298559149365E-02  0.169063394410E-03 -0.203528705929E-02
21  1  1.00E-03 1.00E+4   0.345954460512E-03 -0.256185684238E-02  0.128842329922E-02
22  1  1.00E-03 1.00E+4   0.374328355442E-03 -0.158703568363E-02  0.177755156967E-02
23  1  1.00E-03 1.00E+4  -0.382585852223E-03 -0.223594986952E-02  0.187137522217E-02
24  1  1.00E-03 1.00E+4   0.106831967774E-02 -0.299805202300E-02  0.181483232294E-02
25  1  1.00E-03 1.00E+4   0.206896800185E-03 -0.248490816494E-02 -0.110463871060E-03
26  1  1.00E-03 1.00E+4  -0.211903478397E-03 -0.148950349344E-02  0.984854621105E-03
27  1  1.00E-03 1.00E+4  -0.461495955599E-03 -0.241547760453E-02  0.727654807811E-03
28  1  1.00E-03 1.00E+4   0.622186636190E-03 -0.190537106442E-02  0.585406249411E-03
29  1  1.00E-03 1.00E+4   0.672011195349E-03 -0.237698728974E-03  0.172838736835E-02
30  1  1.00E-03 1.00E+4   0.117796595033E-02  0.409349517388E-03  0.236694663693E-02
31  1  1.00E-03 1.00E+4   0.166171477684E-02 -0.150329165219E-03  0.170050433628E-02
32  1  1.00E-03 1.00E+4   0.122946900556E-02 -0.111149272003E-02  0.195585128735E-02
33  1  1.00E-03 1.00E+4   0.538917983336E-03 -0.625504096958E-03  0.263165538949E-02
34  1  1.00E-03 1.00E+4   0.827395242119E-03  0.458546738255E-03  0.103372110423E-02
35  1  1.00E-03 1.00E+4   0.200848744163E-03 -0.302409369198E-03  0.856133433379E-03
36  1  1.00E-03 1.00E+4   0.151614192318E-02 -0.476701977706E-03  0.266602870353E-02
37  1  1.00E-03 1.00E+4   0.559852212352E-04  0.251919558991E-03  0.234473350147E-02
38  1  1.00E-03 1.00E+4  -0.102912686998E-02  0.162832139754E-02 -0.255871942891E-02
39  1  1.00E-03 1.00E+4  -0.160028274315E-02  0.115579698498E-02 -0.189622483805E-02
40  1  1.00E-03 1.00E+4  -0.302822476021E-03  0.230464839196E-02 -0.266789523300E-02
41  1  1.00E-03 1.00E+4  -0.158531889201E-03  0.150126076730E-02 -0.209967939206E-02
42  1  1.00E-03 1.00E+4  -0.163026192563E-02  0.221712313502E-02 -0.151574978614E-02
43  1  1.00E-03 1.00E+4  -0.100316190323E-02  0.220671801812E-02 -0.336824122049E-02
44  1  1.00E-03 1.00E+4  -0.117822593872E-02  0.849524696110E-03 -0.315993732323E-02
45  1  1.00E-03 1.00E+4  -0.696933849727E-03  0.243918988756E-02 -0.176540749264E-02
46  1  1.00E-03 1.00E+4  -0.158419908685E-02  0.244882252655E-02 -0.247976220923E-02
47  1  1.00E-03 1.00E+4   0.118291177032E-02  0.554247594637E-03  0.106149852233E-03
48  1  1.00E-03 1.00E+4   0.429398165999E-03 -0.623475774512E-03 -0.683041630467E-03
49  1  1.00E-03 1.00E+4   0.128435120233E-02 -0.114870939062E-03 -0.675162249682E-03
50  1  1.00E-03 1.00E+4   0.315624746330E-03  0.788553819627E-03 -0.318795321923E-03
51  1  1.00E-03 1.00E+4   0.183319942361E-02 -0.192388289282E-03  0.150924137586E-03
52  1  1.00E-03 1.00E+4   0.902739863256E-03 -0.543020326748E-03  0.190210687478E-03
53  1  1.00E-03 1.00E+4   0.337967665279E-02  0.288586685176E-02 -0.333494250302E-02
54  1  1.00E-03 1.00E+4  -0.310351874101E-02  0.197636632832E-02 -0.319802333397E-02
55  1  1.00E-03 1.00E+4   0.286593733383E-02  0.254320354585E-02  0.292084965514E-02
56  1  1.00E-03 1.00E+4  -0.340349488012E-02  0.287061241186E-02 -0.237824532529E-02
57  1  1.00E-03 1.00E+4  -0.275243842471E-02  0.275246202498E-02  0.329491332412E-02
58  1  1.00E-03 1.00E+4  -0.291852804430E-02 -0.349953636941E-02 -0.311979744887E-02
59  1  1.00E-03 1.00E+4   0.270024119847E-02  0.313861717913E-02 -0.265417469627E-02
60  1  1.00E-03 1.00E+4  -0.276460223697E-02 -0.595935342417E-03  0.475671280433E-03
61  1  1.00E-03 1.00E+4   0.281685351064E-02 -0.291825368170E-03  0.111066051956E-03
62  1  1.00E-03 1.00E+4  -0.348643965740E-02 -0.458615824155E-03 -0.546631801260E-03
63  1  1.00E-03 1.00E+4   0.345141823896E-02 -0.131873598014E-02 -0.567654454704E-04
64  1  1.00E-03 1.00E+4  -0.344907268546E-02  0.109942553209E-03  0.599567771221E-03
65  1  1.00E-03 1.00E+4  -0.176959371691E-02 -0.838440780212E-03  0.673393575314E-03
66  1  1.00E-03 1.00E+4  -0.284135466250E-02  0.219527740618E-03 -0.200777933390E-03
67  1  1.00E-03 1.00E+4  -0.248673263878E-02 -0.943051751612E-03  0.136045338317E-02
68  1  1.00E-03 1.00E+4  -0.266308383420E-02 -0.999501260397E-03 -0.422501924476E-03
69  1  1.00E-03 1.00E+4   0.329599881743E-02 -0.105547849918E-03  0.212546383009E-02
70  1  1.00E-03 1.00E+4  -0.310217884126E-02  0.647246356055E-03  0.236122368800E-02
71  1  1.00E-03 1.00E+4   0.303379558632E-02  0.590885375266E-03  0.279278261562E-02
72  1  1.00E-03 1.00E+4   0.234849112145E-02 -0.853800411678E-05  0.240460097730E-02
73  1  1.00E-03 1.00E+4   0.220175767046E-02 -0.919008034986E-03  0.203251386542E-02
74  1  1.00E-03 1.00E+4   0.305697585915E-02 -0.334368855344E-03  0.314958023599E-02
75  1  1.00E-03 1.00E+4  -0.341732846829E-02 -0.588608237081E-03  0.130925313181E-02
76  1  1.00E-03 1.00E+4   0.310059795665E-02 -0.103202387192E-02  0.244580064708E-02
77  1  1.00E-03 1.00E+4  -0.160444696308E-02 -0.452408352868E-03  0.324535317921E-02
78  1  1.00E-03 1.00E+4  -0.227187612165E-02  0.649466511732E-03  0.321027292397E-02
79  1  1.00E-03 1.00E+4  -0.165514988641E-02  0.251818266527E-03  0.254452096349E-02
80  1  1.00E-03 1.00E+4  -0.253186713705E-02 -0.388970073337E-03  0.288714348439E-02
81  1  1.00E-03 1.00E+4  -0.114696170977E-02 -0.131936134398E-02  0.307542025637E-02
82  1  1.00E-03 1.00E+4  -0.150179741901E-02 -0.479843757686E-04 -0.288093699875E-02
83  1  1.00E-03 1.00E+4   0.902564977235E-03 -0.122067794636E-02 -0.132017214125E-02
84  1  1.00E-03 1.00E+4   0.681448107079E-03 -0.221496662334E-02 -0.114176888178E-02
85  1  1.00E-03 1.00E+4   0.144469796879E-02 -0.194914192991E-02 -0.172275697442E-02
86  1  1.00E-03 1.00E+4   0.179342038441E-02 -0.785475118666E-03 -0.120391603120E-02
87  1  1.00E-03 1.00E+4   0.536752863087E-03 -0.206672541115E-02 -0.211453664398E-02
88  1  1.00E-03 1.00E+4   0.110531593126E-02 -0.122360823113E-02 -0.230416669621E-02
89  1  1.00E-03 1.00E+4   0.896779007962E-03 -0.147802056129E-02 -0.355634008825E-03
90  1  1.00E-03 1.00E+4   0.216217959405E-04 -0.153384630934E-02 -0.831594037955E-03
91  1  1.00E-03 1.00E+4   0.215875432376E-02 -0.187274182449E-02  0.131053989143E-02
92  1  1.00E-03 1.00E+4   0.117915065133E-02 -0.203204918480E-02  0.140635145724E-02
93  1  1.00E-03 1.00E+4   0.266135336745E-02 -0.266117399796E-02  0.166207989296E-02
94  1  1.00E-03 1.00E+4   0.265305588139E-02 -0.190985375967E-02  0.231556056084E-02
95  1  1.00E-03 1.00E+4   0.294977852641E-02 -0.130619664228E-02  0.150537586479E-02
96  1  1.00E-03 1.00E+4   0.181710901323E-02 -0.937137644775E-03  0.111064160577E-02
97  1  1.00E-03 1.00E+4   0.180857212580E-02 -0.238525707177E-02  0.208770933091E-02
98  1  1.00E-03 1.00E+4   0.180132159893E-02 -0.279842239192E-02  0.117427077989E-02
99  1  1.00E-03 1.00E+4   0.177490695255E-02 -0.156862892560E-02  0.265666942656E-02
100 1  1.00E-03 1.00E+4   0.160559842924E-02 -0.208420434953E-02  0.513037581920E-03
101 1  1.00E-03 1.00E+4   0.879366364315E-03 -0.219932203010E-02  0.237562966800E-02
102 1  1.00E-03 1.00E+4  -0.370832860862E-03  0.335969498992E-02 -0.156314866823E-02
103 1  1.00E-03 1.00E+4  -0.112265370675E-02  0.289384599413E-02 -0.986224267109E-03
104 1  1.00E-03 1.00E+4  -0.109928524042E-02 -0.260111147126E-02 -0.178815081308E-02
105 1  1.00E-03 1.00E+4  -0.249962484411E-03 -0.253493597930E-02 -0.127538166062E-02
106 1  1.00E-03 1.00E+4  -0.286337686315E-03  0.329227040118E-02 -0.255606518613E-02
107 1  1.00E-03 1.00E+4  -0.971215016852E-03 -0.314873431256E-02 -0.961343198482E-03
108 1  1.00E-03 1.00E+4  -0.116902635281E-02  0.349652360277E-02 -0.214094449896E-02
109 1  1.00E-03 1.00E+4  -0.320339971886E-02  0.297229254951E-02  0.418355107214E-03
110 1  1.00E-03 1.00E+4  -0.233707139024E-02  0.273897318015E-02 -0.581280406710E-05
111 1  1.00E-03 1.00E+4  -0.294621961493E-02  0.197917814776E-02  0.360279677020E-03
112 1  1.00E-03 1.00E+4   0.330420776376E-02  0.233691316985E-02 -0.144023587531E-03
113 1  1.00E-03 1.00E+4  -0.268831402266E-02  0.217833456320E-02  0.129831523624E-02
114 1  1.00E-03 1.00E+4   0.286629814975E-02  0.315109922142E-02  0.228421620965E-03
115 1  1.00E-03 1.00E+4  -0.280876752731E-02  0.316138963165E-02  0.131142722906E-02
116 1  1.00E-03 1.00E+4  -0.268952001433E-02 -0.336540019276E-02 -0.803241582601E-04
117 1  1.00E-03 1.00E+4   0.339348553736E-02  0.244606731577E-02  0.114391966953E-02
118 1  1.00E-03 1.00E+4  -0.268414021223E-03 -0.403502085253E-03  0.315827489976E-02
119 1  1.00E-03 1.00E+4   0.241770630590E-03  0.438602957254E-03  0.330614000169E-02
120 1  1.00E-03 1.00E+4  -0.809698535850E-03  0.425019673252E-03  0.304442894356E-02
121 1  1.00E-03 1.00E+4  -0.875297455609E-03 -0.762015107314E-03 -0.317225799015E-02
122 1  1.00E-03 1.00E+4  -0.196130984913E-03 -0.137559430208E-02  0.336827633062E-02
123 1  1.00E-03 1.00E+4  -0.969994290687E-03 -0.462739879231E-03  0.245927297631E-02
124 1  1.00E-03 1.00E+4  -0.422784310997E-03  0.135249154854E-03 -0.305042017086E-02
125 1  1.00E-03 1.00E+4   0.362208565049E-03 -0.796602158812E-03 -0.308162441733E-02
126 1  1.00E-03 1.00E+4   0.208933677280E-02  0.193516397509E-02  0.304379469073E-02
127 1  1.00E-03 1.00E+4   0.123271062623E-02  0.176354639824E-02 -0.350965103280E-02
128 1  1.00E-03 1.00E+4   0.293497616431E-02  0.199802789888E-02 -0.327621853050E-02
129 1  1.00E-03 1.00E+4   0.210982367194E-02  0.997865455084E-03  0.270621277964E-02
130 1  1.00E-03 1.00E+4   0.196882985902E-02  0.280722525209E-02  0.257545415126E-02
131 1  1.00E-03 1.00E+4   0.308052794843E-02  0.158218495994E-02  0.284441799192E-02
132 1  1.00E-03 1.00E+4   0.217591807834E-02  0.117763014259E-02 -0.334402675163E-02
133 1  1.00E-03 1.00E+4   0.199498621963E-02  0.216380216064E-02 -0.301031192254E-02
134 1  1.00E-03 1.00E+4   0.297484555152E-02  0.741546222710E-03  0.106788880020E-02
135 1  1.00E-03 1.00E+4   0.307978805622E-02  0.149661694113E-02  0.359105281671E-03
136 1  1.00E-03 1.00E+4   0.254847827747E-02 -0.235667766083E-03  0.107702192271E-02
137 1  1.00E-03 1.00E+4   0.251454236797E-02  0.158946940181E-02  0.130967020928E-02
138 1  1.00E-03 1.00E+4   0.314690023247E-02  0.112813254929E-02  0.196608343575E-02
139 1  1.00E-03 1.00E+4  -0.339199468657E-02  0.148546830643E-02  0.118239620086E-02
140 1  1.00E-03 1.00E+4   0.225439791887E-02  0.739411326424E-03  0.175689318408E-02
141 1  1.00E-03 1.00E+4   0.182103083258E-02  0.436563435382E-03  0.915835675312E-03
142 1  1.00E-03 1.00E+4   0.246834436614E-02  0.721664468115E-03  0.213139537698E-03
143 1  1.00E-03 1.00E+4  -0.257807772329E-03 -0.297303307268E-02  0.333168282497E-02
144 1  1.00E-03 1.00E+4  -0.878265699618E-03 -0.264934153207E-02  0.262639436719E-02
145 1  1.00E-03 1.00E+4  -0.204123962317E-04 -0.216919931391E-02  0.279692675549E-02
146 1  1.00E-03 1.00E+4  -0.464065787086E-03  0.298265861268E-02  0.235466265617E-02
147 1  1.00E-03 1.00E+4   0.413201503522E-03 -0.304765971683E-02  0.260081111120E-02
148 1  1.00E-03 1.00E+4  -0.310236701528E-03  0.293482140231E-02 -0.349978492832E-02
149 1  1.00E-03 1.00E+4  -0.779959767901E-03 -0.215560136826E-02 -0.345885585309E-02
150 1  1.00E-03 1.00E+4  -0.834797126115E-03 -0.297789690855E-02 -0.289185124706E-02
151 1  1.00E-03 1.00E+4  -0.995339956518E-03  0.346357404967E-02  0.303976471249E-02
152 1  1.00E-03 1.00E+4   0.120156952689E-02  0.799301298050E-03  0.328097452039E-02
153 1  1.00E-03 1.00E+4   0.992634430236E-03 -0.192066539749E-03  0.346397849550E-02
154 1  1.00E-03 1.00E+4   0.140278367622E-02  0.115732839956E-02  0.145656065766E-02
155 1  1.00E-03 1.00E+4   0.533729502689E-03  0.101517057775E-02  0.191509151581E-02
156 1  1.00E-03 1.00E+4   0.926075823311E-04 -0.111999461202E-02  0.111918073065E-03
157 1  1.00E-03 1.00E+4  -0.113670587206E-03 -0.708802001175E-04 -0.580889508691E-04
158 1  1.00E-03 1.00E+4  -0.673435554294E-03 -0.701917592721E-03  0.596733889923E-03
159 1  1.00E-03 1.00E+4  -0.238274369042E-02  0.157981009291E-02 -0.144937153587E-02
160 1  1.00E-03 1.00E+4  -0.229661907935E-02  0.591752146773E-03 -0.145946560922E-02
161 1  1.00E-03 1.00E+4  -0.759446540119E-03  0.942025025325E-03 -0.141256300001E-02
162 1  1.00E-03 1.00E+4  -0.926861942752E-03  0.484603903526E-03 -0.227157791214E-02
163 1  1.00E-03 1.00E+4  -0.159947385738E-02 -0.475666852433E-04 -0.176799210531E-02
164 1  1.00E-03 1.00E+4   0.141450897662E-02 -0.294844259916E-03 -0.215661840159E-02
165 1  1.00E-03 1.00E+4   0.137785303142E-02 -0.105143344535E-02 -0.324439180477E-02
166 1  1.00E-03 1.00E+4   0.147568346766E-02  0.366775055913E-03 -0.289597895368E-02
167 1  1.00E-03 1.00E+4   0.570834699858E-03 -0.309028093734E-03 -0.162707874532E-02
168 1  1.00E-03 1.00E+4   0.584102522918E-03  0.379891938317E-04 -0.259511742898E-02
169 1  1.00E-03 1.00E+4   0.962349710191E-03 -0.284265202352E-02  0.566434006049E-03
170 1  1.00E-03 1.00E+4   0.205286118595E-02 -0.195976700457E-02 -0.363011444347E-03
171 1  1.00E-03 1.00E+4   0.274761256275E-02 -0.212647288686E-02  0.412858241334E-03
172 1  1.00E-03 1.00E+4   0.860921187699E-03 -0.146903860369E-02  0.304553040702E-02
173 1  1.00E-03 1.00E+4   0.203726449310E-02 -0.177344530083E-02 -0.343013496819E-02
174 1  1.00E-03 1.00E+4   0.685120450732E-03 -0.173740583256E-02 -0.304252704642E-02
175 1  1.00E-03 1.00E+4  -0.276111110598E-02 -0.182758933193E-03  0.193988313827E-02
176 1  1.00E-03 1.00E+4  -0.187233043919E-02 -0.595871171104E-03  0.207090290521E-02
177 1  1.00E-03 1.00E+4  -0.296068713988E-02 -0.111482311179E-02  0.222264560725E-02
178 1  1.00E-03 1.00E+4  -0.200148769888E-02  0.108491614445E-03  0.136164619381E-02
179 1  1.00E-03 1.00E+4  -0.222332032068E-02  0.102755250967E-02  0.973304884643E-03
180 1  1.00E-03 1.00E+4  -0.203459501086E-02  0.717664716828E-04  0.364965093059E-03
181 1  1.00E-03 1.00E+4  -0.212878539485E-02  0.100170579321E-02 -0.207760065240E-04
182 1  1.00E-03 1.00E+4  -0.195131342206E-02  0.190090939704E-02  0.387629853629E-03
183 1  1.00E-03 1.00E+4  -0.174353604297E-02  0.945279558276E-03  0.184134989163E-02
184 1  1.00E-03 1.00E+4  -0.263955458286E-02  0.137349230693E-02  0.187137062058E-02
185 1  1.00E-03 1.00E+4  -0.303379589450E-02  0.988097783382E-03  0.401658645087E-03
186 1  1.00E-03 1.00E+4  -0.176465939084E-02  0.181825116033E-02  0.136496253079E-02
187 1  1.00E-03 1.00E+4  -0.302332211289E-02  0.582538938149E-03  0.136548818024E-02
188 1  1.00E-03 1.00E+4  -0.266244551151E-03 -0.116043543895E-02  0.240204748716E-02
189 1  1.00E-03 1.00E+4  -0.110725814886E-02 -0.160933438668E-02  0.212493462806E-02
190 1  1.00E-03 1.00E+4  -0.115030970523E-02 -0.882140188094E-03  0.145003080704E-02
191 1  1.00E-03 1.00E+4  -0.303756515228E-03 -0.436156603303E-03  0.171772105245E-02
192 1  1.00E-03 1.00E+4  -0.316429402686E-02 -0.260716125820E-02 -0.350313931431E-02
193 1  1.00E-03 1.00E+4  -0.346982821487E-02 -0.171431152614E-02 -0.318220252974E-02
194 1  1.00E-03 1.00E+4  -0.314629859101E-02 -0.193333541417E-02  0.279470181642E-02
195 1  1.00E-03 1.00E+4  -0.224284987142E-02 -0.210179134073E-02 -0.339897725827E-02
196 1  1.00E-03 1.00E+4  -0.267594897159E-02 -0.266193207738E-02 -0.263567421320E-02
197 1  1.00E-03 1.00E+4   0.325586728449E-02 -0.302516564021E-02 -0.283821775209E-02
198 1  1.00E-03 1.00E+4   0.273847001979E-02 -0.217427362230E-02 -0.285310657135E-02
199 1  1.00E-03 1.00E+4   0.297484585938E-02 -0.221271219629E-02  0.320901984960E-02
200 1  1.00E-03 1.00E+4  -0.335486932088E-02 -0.485214769709E-03 -0.302051211216E-02
201 1  1.00E-03 1.00E+4  -0.325113970103E-02 -0.101794858998E-02  0.317133897863E-02
202 1  1.00E-03 1.00E+4  -0.255278729826E-02 -0.106402347897E-02 -0.315415655044E-02
203 1  1.00E-03 1.00E+4   0.302119690635E-02 -0.207425631898E-02 -0.544961627661E-03
204 1  1.00E-03 1.00E+4  -0.304707754268E-02 -0.186219184413E-02 -0.705123611938E-03
205 1  1.00E-03 1.00E+4   0.293056034866E-02 -0.287704209200E-02 -0.112463494353E-02
206 1  1.00E-03 1.00E+4  -0.332786367898E-02 -0.227303308833E-02  0.152741093137E-03
207 1  1.00E-03 1.00E+4   0.327078574406E-02 -0.126790729722E-02 -0.106202055975E-02
208 1  1.00E-03 1.00E+4   0.254004081884E-02 -0.109626144841E-02 -0.408052249105E-03
209 1  1.00E-03 1.00E+4   0.306814941102E-02 -0.298263803298E-02 -0.147377225284E-03
210 1  1.00E-03 1.00E+4  -0.318413241956E-02 -0.283852981799E-02 -0.750600922569E-03
211 1  1.00E-03 1.00E+4   0.344054040695E-03  0.219408915273E-02 -0.341412475166E-02
212 1  1.00E-03 1.00E+4   0.111592652207E-02  0.262262618630E-02 -0.295360583395E-02
213 1  1.00E-03 1.00E+4   0.555516202255E-03  0.215728366264E-02  0.244872575308E-02
214 1  1.00E-03 1.00E+4  -0.353484493563E-03  0.215916589315E-02  0.290324346662E-02
215 1  1.00E-03 1.00E+4   0.111802881004E-02  0.267726600532E-02  0.308185146919E-02
216 1  1.00E-03 1.00E+4   0.420783520638E-03  0.137901028251E-02  0.305163385674E-02
217 1  1.00E-03 1.00E+4   0.429096252914E-03 -0.349580790403E-02 -0.320744926745E-02
218 1  1.00E-03 1.00E+4  -0.461839410691E-03  0.323084603798E-02  0.104486517915E-02
219 1  1.00E-03 1.00E+4   0.487810531925E-03  0.348360376019E-02  0.122159999489E-02
220 1  1.00E-03 1.00E+4  -0.198271921324E-03  0.220133042048E-02  0.180122455082E-02
221 1  1.00E-03 1.00E+4  -0.127617430023E-02  0.311974520071E-02  0.179964518131E-02
222 1  1.00E-03 1.00E+4  -0.104919630186E-02 -0.305368498693E-02  0.133740732542E-02
223 1  1.00E-03 1.00E+4  -0.969356605391E-03  0.238812279505E-02  0.119970294109E-02
224 1  1.00E-03 1.00E+4   0.497025629468E-03  0.310452744023E-02  0.214348143347E-02
225 1  1.00E-03 1.00E+4  -0.138601871322E-02  0.271909054249E-02  0.280676855668E-03
226 1  1.00E-03 1.00E+4   0.261387705860E-03  0.255732741250E-02  0.941406340889E-03
227 1  1.00E-03 1.00E+4  -0.214498861442E-03 -0.322143090139E-02  0.185008202420E-02
228 1  1.00E-03 1.00E+4   0.253725788943E-02  0.269093019855E-02 -0.178077926366E-02
229 1  1.00E-03 1.00E+4   0.174938189792E-02  0.318834017580E-02 -0.236163473068E-02
230 1  1.00E-03 1.00E+4   0.154470815707E-02  0.291278247689E-02 -0.142869863904E-02
231 1  1.00E-03 1.00E+4   0.253996439882E-02  0.180927286146E-02 -0.224935009412E-02
232 1  1.00E-03 1.00E+4   0.267353534925E-02  0.277360837488E-02 -0.780070205441E-03
233 1  1.00E-03 1.00E+4   0.222849811140E-02 -0.341115564186E-02 -0.159145794694E-02
234 1  1.00E-03 1.00E+4   0.202326040346E-02 -0.159107460910E-02 -0.245037537990E-02
235 1  1.00E-03 1.00E+4   0.273991401096E-02 -0.117278635439E-02 -0.300419002144E-02
236 1  1.00E-03 1.00E+4   0.162219819641E-02 -0.263681453122E-02  0.334974197972E-02
237 1  1.00E-03 1.00E+4  -0.206577327789E-02 -0.282730661642E-02 -0.186296462443E-02
238 1  1.00E-03 1.00E+4  -0.254220688001E-02 -0.201322625882E-02 -0.154352593249E-02
239 1  1.00E-03 1.00E+4  -0.161125658585E-02 -0.241476360552E-02 -0.264598854820E-02
240 1  1.00E-03 1.00E+4  -0.161030597838E-02 -0.174560818492E-02 -0.177138047770E-02
241 1  1.00E-03 1.00E+4  -0.220790913053E-02 -0.268764045513E-02 -0.889164811757E-03
242 1  1.00E-03 1.00E+4  -0.278768847522E-02  0.339126912218E-02 -0.118629810776E-02
243 1  1.00E-03 1.00E+4  -0.307540035539E-02 -0.282848275637E-02 -0.173616420777E-02
244 1  1.00E-03 1.00E+4   0.219632327520E-02  0.290413102719E-03 -0.638658766180E-03
245 1  1.00E-03 1.00E+4   0.263076705229E-02 -0.115154346255E-02  0.578874792215E-03
246 1  1.00E-03 1.00E+4   0.235245317844E-02 -0.160656742559E-02 -0.124598511963E-02
247 1  1.00E-03 1.00E+4   0.281829678581E-02 -0.222934237765E-02 -0.186540389946E-02
248 1  1.00E-03 1.00E+4   0.306702964440E-02 -0.128208005578E-02 -0.203758714442E-02
249 1  1.00E-03 1.00E+4   0.154042577088E-03 -0.298688796121E-02 -0.206822349272E-02
250 1  1.00E-03 1.00E+4   0.114294127562E-02 -0.257085754733E-02 -0.272934965329E-02
251 1  1.00E-03 1.00E+4   0.112422812049E-02 -0.304117485603E-02 -0.185051753418E-02
252 1  1.00E-03 1.00E+4   0.587500270292E-03  0.329073649144E-02 -0.130719247671E-02
253 1  1.00E-03 1.00E+4  -0.230958382392E-04 -0.241003058738E-02 -0.286177602703E-02
254 1  1.00E-03 1.00E+4   0.673557759687E-03  0.322008013516E-02 -0.229518608959E-02
255 1  1.00E-03 1.00E+4   0.109890840800E-02  0.290964031115E-02 -0.541756013619E-03
256 1  1.00E-03 1.00E+4   0.291306486147E-03  0.262617732411E-02 -0.480501322320E-04
257 1  1.00E-03 1.00E+4   0.197249865265E-02  0.283345465250E-02 -0.705746144398E-04
258 1  1.00E-03 1.00E+4   0.132637194759E-02 -0.322185722277E-02 -0.893775172160E-03
259 1  1.00E-03 1.00E+4   0.163284757120E-02  0.212596631384E-02 -0.824241837969E-03
260 1  1.00E-03 1.00E+4   0.121742352040E-02  0.225500579215E-02  0.232531169800E-03
261 1  1.00E-03 1.00E+4   0.895553111367E-03  0.158742023879E-02 -0.436444487203E-03
262 1  1.00E-03 1.00E+4   0.175301131070E-02  0.303916762385E-02  0.981657910293E-03
263 1  1.00E-03 1.00E+4   0.239418713867E-02  0.194055376570E-02 -0.210297598111E-03
264 1  1.00E-03 1.00E+4   0.171463122584E-02  0.131826335611E-02  0.464139324703E-03
265 1  1.00E-03 1.00E+4   0.248328281576E-02  0.236221638178E-02  0.687460164201E-03
266 1  1.00E-03 1.00E+4   0.163974978543E-02  0.206053592028E-02  0.111667560540E-02
267 1  1.00E-03 1.00E+4   0.150289126269E-02  0.132676892336E-02 -0.262720727369E-02
268 1  1.00E-03 1.00E+4  -0.264642727200E-02  0.199409253729E-02 -0.587329728464E-03
269 1  1.00E-03 1.00E+4  -0.167661812668E-02  0.220594493660E-02 -0.522976126250E-03
270 1  1.00E-03 1.00E+4  -0.348975540762E-02  0.324002260173E-02 -0.498846946132E-03
271 1  1.00E-03 1.00E+4   0.133666176830E-02  0.269366122444E-02  0.181721190204E-02
272 1  1.00E-03 1.00E+4   0.968798848578E-03  0.320762726496E-02  0.395823749636E-03
273 1  1.00E-03 1.00E+4   0.803843087553E-04 -0.337217562226E-02  0.326874363553E-03
274 1  1.00E-03 1.00E+4   0.615998247332E-03  0.978548540457E-03 -0.292477700471E-02
275 1  1.00E-03 1.00E+4   0.158034911620E-04  0.534206529003E-03 -0.194870307191E-02
276 1  1.00E-03 1.00E+4   0.687991111014E-03  0.186887488297E-02 -0.246705819177E-02
277 1  1.00E-03 1.00E+4  -0.277643452987E-03  0.126652781523E-02 -0.326712984505E-02
278 1  1.00E-03 1.00E+4  -0.196567685838E-02  0.335217202404E-02  0.322617898977E-02
279 1  1.00E-03 1.00E+4  -0.196837546506E-02 -0.331763314698E-02 -0.287255271482E-02
280 1  1.00E-03 1.00E+4  -0.118333842580E-02  0.313738791063E-02 -0.307027696754E-02
281 1  1.00E-03 1.00E+4  -0.166199926810E-02 -0.321486760194E-02  0.239722854430E-02
282 1  1.00E-03 1.00E+4  -0.238418176738E-02 -0.281112231813E-02  0.294566990019E-02
283 1  1.00E-03 1.00E+4  -0.162229320474E-02 -0.240757929918E-02  0.182188994424E-02
284 1  1.00E-03 1.00E+4  -0.176003605969E-02 -0.255696544334E-02  0.847468750964E-03
285 1  1.00E-03 1.00E+4  -0.114909864003E-02 -0.183257612866E-02  0.115325110566E-02
286 1  1.00E-03 1.00E+4  -0.189392105113E-02 -0.348042388240E-02  0.498055927622E-03
287 1  1.00E-03 1.00E+4  -0.954314019518E-03 -0.319226929431E-02  0.356394415664E-03
288 1  1.00E-03 1.00E+4   0.196352575356E-02  0.195615950707E-02  0.205452318126E-02
289 1  1.00E-03 1.00E+4   0.293070750784E-02  0.218308351846E-02  0.199283106024E-02
290 1  1.00E-03 1.00E+4   0.123830150067E-02  0.142828040186E-02  0.248527881093E-02
291 1  1.00E-03 1.00E+4  -0.268237803774E-02  0.249911330957E-02 -0.169599035331E-02
292 1  1.00E-03 1.00E+4  -0.189276355129E-02  0.317422089983E-02 -0.154676765638E-02
293 1  1.00E-03 1.00E+4  -0.261816119130E-02  0.343702913792E-02 -0.217303882830E-02
294 1  1.00E-03 1.00E+4   0.345004740050E-02  0.282564365177E-02 -0.140018890547E-02
295 1  1.00E-03 1.00E+4   0.349312721240E-02  0.190615498127E-02 -0.102061031495E-02
296 1  1.00E-03 1.00E+4   0.349689842756E-02  0.195930607306E-02 -0.201426408486E-02
297 1  1.00E-03 1.00E+4  -0.251267535322E-02  0.264982789478E-02 -0.277060507161E-02
298 1  1.00E-03 1.00E+4   0.638193129680E-03 -0.256444495991E-02  0.343919432408E-02
299 1  1.00E-03 1.00E+4   0.197591915329E-02 -0.265070260225E-02 -0.218404409342E-02
300 1  1.00E-03 1.00E+4   0.141949712977E-02 -0.350228003812E-02 -0.323754415760E-02
301 1  1.00E-03 1.00E+4   0.227968713225E-02 -0.304030549852E-02 -0.304527366737E-02
302 1  1.00E-03 1.00E+4  -0.151515559986E-02 -0.281122369455E-02  0.343065901608E-02
303 1  1.00E-03 1.00E+4  -0.165351551910E-02  0.120917723919E-02 -0.875816373690E-03
304 1  1.00E-03 1.00E+4  -0.311960479453E-02  0.111631691027E-02 -0.577785552222E-03
305 1  1.00E-03 1.00E+4   0.271640200237E-02 -0.412956075230E-03 -0.110421357080E-02
306 1  1.00E-03 1.00E+4  -0.266160637427E-02 -0.241185749664E-03 -0.106409841691E-02
307 1  1.00E-03 1.00E+4   0.336339428378E-02  0.344363105552E-03 -0.109947355745E-02
308 1  1.00E-03 1.00E+4   0.296200448847E-03  0.246165276108E-02 -0.177337011148E-02
309 1  1.00E-03 1.00E+4   0.118022964001E-02 -0.243243017004E-02 -0.312433636385E-03
310 1  1.00E-03 1.00E+4  -0.530196731948E-03  0.221821302497E-02  0.326171408827E-03
311 1  1.00E-03 1.00E+4  -0.581415231388E-03  0.308553498983E-02 -0.173494277238E-03
312 1  1.00E-03 1.00E+4  -0.113608202607E-02  0.152214537624E-02 -0.453856106910E-04
313 1  1.00E-03 1.00E+4  -0.932585077048E-04  0.169437363938E-02 -0.395449716600E-03
314 1  1.00E-03 1.00E+4  -0.192159537668E-03  0.254773588752E-02 -0.912441566491E-03
315 1  1.00E-03 1.00E+4  -0.879732250148E-03  0.183250369765E-02 -0.988518633456E-03
316 1  1.00E-03 1.00E+4  -0.910744584947E-04  0.162805577934E-02  0.997904870326E-03
317 1  1.00E-03 1.00E+4   0.344595117312E-02 -0.334657261657E-02  0.164573027287E-02
318 1  1.00E-03 1.00E+4   0.345306427570E-02 -0.254032175355E-02  0.107178528441E-02
319 1  1.00E-03 1.00E+4  -0.291547311020E-02 -0.276910644674E-02  0.210633879756E-02
320 1  1.00E-03 1.00E+4   0.279149743573E-02  0.327636271733E-02  0.226480317510E-02
321 1  1.00E-03 1.00E+4  -0.251319661033E-02  0.332439758864E-02  0.224897187590E-02
322 1  1.00E-03 1.00E+4   0.319252104384E-02 -0.285501728128E-02  0.247847061976E-02
323 1  1.00E-03 1.00E+4   0.269298613568E-02  0.313321641786E-02  0.128731011513E-02
324 1  1.00E-03 1.00E+4  -0.322980144875E-02  0.266076199713E-02  0.206342975688E-02
325 1  1.00E-03 1.00E+4  -0.169380577467E-02 -0.209481603895E-02  0.276628178850E-02
326 1  1.00E-03 1.00E+4  -0.251532555490E-02 -0.219901938407E-02  0.139419736861E-02
327 1  1.00E-03 1.00E+4  -0.200569390295E-02 -0.330321528285E-02  0.146989844003E-02
328 1  1.00E-03 1.00E+4   0.738668779361E-03  0.189710940537E-02  0.150631798648E-02
329 1  1.00E-03 1.00E+4  -0.190823680434E-02  0.142445195584E-02  0.269990968160E-02
330 1  1.00E-03 1.00E+4  -0.228256239270E-02 -0.105433798245E-02 -0.149365848238E-02
331 1  1.00E-03 1.00E+4  -0.331781709043E-02 -0.201194544481E-02 -0.224540958163E-02
332 1  1.00E-03 1.00E+4  -0.235180160495E-02 -0.242912577942E-02  0.596871151018E-04
333 1  1.00E-03 1.00E+4  -0.305284878704E-02  0.126047167839E-02  0.314274191219E-02
334 1  1.00E-03 1.00E+4  -0.100806038464E-02  0.707949676019E-04  0.119117211901E-02
335 1  1.00E-03 1.00E+4  -0.110420915048E-02 -0.189375777925E-04  0.227238183838E-04
336 1  1.00E-03 1.00E+4  -0.135278806270E-02  0.770458394961E-03  0.568094616291E-03
337 1  1.00E-03 1.00E+4   0.721743219924E-03  0.133680930369E-02  0.511457831677E-03
338 1  1.00E-03 1.00E+4   0.181091013100E-02  0.119692036871E-02 -0.517925557610E-03
339 1  1.00E-03 1.00E+4   0.106111959285E-02  0.788147425465E-03 -0.102448174713E-02
340 1  1.00E-03 1.00E+4   0.947334815406E-03  0.177904798179E-02 -0.145742830946E-02
341 1  1.00E-03 1.00E+4  -0.269601035424E-02  0.202787772936E-02  0.261755857910E-02
342 1  1.00E-03 1.00E+4  -0.199945487482E-02  0.248538241683E-02  0.207034188210E-02
343 1  1.00E-03 1.00E+4  -0.196344988489E-02  0.215275263476E-02  0.339617441915E-02
344 1  1.00E-03 1.00E+4   0.199918725661E-02 -0.254439278924E-02 -0.116169269029E-02
345 1  1.00E-03 1.00E+4   0.289810601947E-02  0.140412586461E-03 -0.302221401387E-02
346 1  1.00E-03 1.00E+4  -0.345569741458E-02 -0.496223135378E-03 -0.159915860248E-02
347 1  1.00E-03 1.00E+4  -0.302176984638E-02 -0.106575999552E-02 -0.228103769958E-02
348 1  1.00E-03 1.00E+4  -0.214383129174E-02 -0.611291881905E-03 -0.237405997760E-02
349 1  1.00E-03 1.00E+4  -0.943971449162E-03  0.124943196153E-02  0.133596369347E-02
350 1  1.00E-03 1.00E+4  -0.847616363583E-03  0.557212176573E-03  0.204890602249E-02