Minimal input coord file.
2 atoms
1 atom types

-1.5e-3 1.5e-3 xlo xhi
-1.5e-3 1.5e-3 ylo yhi
-1.5e-3 1.5e-3 zlo zhi

Atoms

1 1 1e-3 1e18 0 0  0.5e-3
2 1 1e-3 1e18 0 0 -0.5e-3
